<?xml version="1.0"?>
<VTKFile type="UnstructuredGrid"  version="0.1"  >
<UnstructuredGrid>
<Piece  NumberOfPoints="694" NumberOfCells="2571">
<Points>
<DataArray  type="Float64"  NumberOfComponents="3"  format="ascii">1 0 0  -1 0 0  0 1 0  0 -1 0  1 0 6  -1 0 6  0 1 6  0 -1 6  -0.3090169943741451 -0.9510565162954142 0  -0.5877852522911823 -0.8090169943758854 0  -0.809016994374077 -0.5877852522936712 0  -0.9510565162949579 -0.3090169943755495 0  -0.9510565162954142 0.3090169943741451 0  -0.8090169943758854 0.5877852522911823 0  -0.5877852522936712 0.809016994374077 0  -0.3090169943755495 0.9510565162949579 0  0.3090169943741451 0.9510565162954142 0  0.5877852522911823 0.8090169943758854 0  0.809016994374077 0.5877852522936712 0  0.9510565162949579 0.3090169943755495 0  0.9510565162954142 -0.3090169943741451 0  0.8090169943758854 -0.5877852522911823 0  0.5877852522936712 -0.809016994374077 0  0.3090169943755495 -0.9510565162949579 0  -0.3090169943741451 -0.9510565162954142 6  -0.5877852522911823 -0.8090169943758854 6  -0.809016994374077 -0.5877852522936712 6  -0.9510565162949579 -0.3090169943755495 6  -0.9510565162954142 0.3090169943741451 6  -0.8090169943758854 0.5877852522911823 6  -0.5877852522936712 0.809016994374077 6  -0.3090169943755495 0.9510565162949579 6  0.3090169943741451 0.9510565162954142 6  0.5877852522911823 0.8090169943758854 6  0.809016994374077 0.5877852522936712 6  0.9510565162949579 0.3090169943755495 6  0.9510565162954142 -0.3090169943741451 6  0.8090169943758854 -0.5877852522911823 6  0.5877852522936712 -0.809016994374077 6  0.3090169943755495 -0.9510565162949579 6  0 -1 5.666666666670647  0 -1 5.333333333337015  0 -1 5.000000000006331  0 -1 4.666666666672294  0 -1 4.333333333338025  0 -1 4.000000000003872  0 -1 3.666666666672013  0 -1 3.333333333340212  0 -1 3.000000000008324  0 -1 2.666666666674143  0 -1 2.333333333339875  0 -1 2.000000000005606  0 -1 1.666666666671338  0 -1 1.33333333333707  0 -1 1.000000000002801  0 -1 0.666666666668533  0 -1 0.3333333333342638  1 0 5.666666666670647  1 0 5.333333333337015  1 0 5.000000000006331  1 0 4.666666666672294  1 0 4.333333333338025  1 0 4.000000000003872  1 0 3.666666666672013  1 0 3.333333333340212  1 0 3.000000000008324  1 0 2.666666666674143  1 0 2.333333333339875  1 0 2.000000000005606  1 0 1.666666666671338  1 0 1.33333333333707  1 0 1.000000000002801  1 0 0.666666666668533  1 0 0.3333333333342638  0 1 5.666666666670647  0 1 5.333333333337015  0 1 5.000000000006331  0 1 4.666666666672294  0 1 4.333333333338025  0 1 4.000000000003872  0 1 3.666666666672013  0 1 3.333333333340212  0 1 3.000000000008324  0 1 2.666666666674143  0 1 2.333333333339875  0 1 2.000000000005606  0 1 1.666666666671338  0 1 1.33333333333707  0 1 1.000000000002801  0 1 0.666666666668533  0 1 0.3333333333342638  -1 0 5.666666666670647  -1 0 5.333333333337015  -1 0 5.000000000006331  -1 0 4.666666666672294  -1 0 4.333333333338025  -1 0 4.000000000003872  -1 0 3.666666666672013  -1 0 3.333333333340212  -1 0 3.000000000008324  -1 0 2.666666666674143  -1 0 2.333333333339875  -1 0 2.000000000005606  -1 0 1.666666666671338  -1 0 1.33333333333707  -1 0 1.000000000002801  -1 0 0.666666666668533  -1 0 0.3333333333342638  2.312964634635743e-18 -2.312964634635743e-18 6  -0.07919222016205184 -0.5 6  0.5 -0.07919222016205184 6  0.07919222016205184 0.5 6  -0.5 0.07919222016205184 6  -0.4397412542923073 -0.3127531767930463 6  0.312303316380788 -0.4414662247622227 6  -0.3127531767930463 0.4397412542923073 6  0.4397412542923073 0.3127531767930463 6  0.3552279732954015 0.6187291559277071 6  -0.3552279732954015 -0.6187291559277071 6  -0.6187291559277071 0.3552279732954015 6  0.6187291559277071 -0.3552279732954015 6  0.1412457297294897 -0.7189175218315761 6  -0.14664405467659 0.6982178761925913 6  -0.6982178761925913 -0.14664405467659 6  0.6982178761925913 0.14664405467659 6  0.2259433296715587 -0.1706666755743158 6  -0.2238352458769628 0.1676978823592602 6  -0.1682686143287634 -0.22874210821226 6  0.1682759933780775 0.2291587825534904 6  0.1198477624670076 0.7566889918085933 6  0.7566889918085933 -0.1198477624670076 6  -0.1198477624670076 -0.7566889918085933 6  -0.7566889918085933 0.1198477624670076 6  -0.6992822106819679 -0.38086174653503 6  0.38086174653503 -0.6992822106819679 6  0.6992822106819679 0.38086174653503 6  -0.38086174653503 0.6992822106819679 6  0.5789068947160889 0.5533925407359302 6  0.5533325593476291 -0.5791368907787443 6  -0.5789068947160889 -0.5533925407359302 6  -0.5533925407359302 0.5789068947160889 6  -0.2800050683775591 -0.04272643218051986 6  0.2800604112474151 0.04585148973974845 6  0.04616659272071032 -0.2775385202229354 6  -0.04594451239649009 0.27696824164377 6  0 0 0  -0.07909431021006419 -0.4850496172582023 0  0.5072448651278516 -0.1076939713574014 0  0.07919222016205184 0.5 0  -0.5180740161845078 0.0549361217193883 0  -0.4362413771755893 -0.3088961739211117 0  0.3228827637302699 -0.4289443120281154 0  0.4685763491208914 0.3404406452541172 0  -0.3404406452541172 0.4685763491208914 0  0.3552279732954015 0.6187291559277071 0  -0.3552279732954015 -0.6187291559277071 0  0.6187291559277071 -0.3552279732954015 0  -0.6155740615481612 0.3434048683976815 0  -0.7196038067483429 -0.141137032877044 0  0.14664405467659 -0.6982178761925913 0  0.6886311537122359 0.1370670625223248 0  -0.141137032877044 0.7196038067483429 0  -0.156121105026439 -0.2189898391828705 0  0.08294130919432978 -0.2502661983199859 0  0.1844578396332011 0.2064238201886288 0  -0.1127132249536036 0.2511986111724092 0  0.1205820320402804 0.7595404492160268 0  0.7628655560594947 -0.1208260341390193 0  -0.1198477624670076 -0.7566889918085933 0  -0.7615296387900217 0.1157714715948959 0  -0.2579797773054724 0.009259837466376798 0  0.2471115026975105 -0.05783336429980356 0  -0.6992822106819679 -0.38086174653503 0  -0.38086174653503 0.6992822106819679 0  0.6992822106819679 0.38086174653503 0  0.3860003364335081 -0.6954320581025272 0  -0.5784402444338599 -0.552878273686339 0  -0.5765190918376547 0.5802992101742923 0  0.5802992101742923 0.5765190918376547 0  0.5765190918376547 -0.5802992101742923 0  0.4120825780453066 0.1105040871237383 0  -0.3593051568666626 0.2306545216578434 0  -0.7071035452683525 0.707110017089934 3.487550894224055  -0.6220098675267891 0.7830094026889498 5.548069931815419  -0.7449854271851117 0.6670807397023366 5.116046965525902  -0.7070878287300452 0.7071257331350845 3.838213463800682  -0.7071092362940918 0.7071043260704788 3.115191126782878  -0.707056785559035 0.7071567732793945 4.120563271609551  -0.7540700624457258 0.656793986667889 0.9408632307455189  -0.7310312312792929 0.6823440033401632 1.711839418235114  -0.7671805831469978 0.641431175452388 2.412513424437218  -0.903568119994109 0.4284444567622635 0.2668874038826612  -0.9025632136235483 0.4305573659961392 5.740853167758909  -0.8580704884768453 0.513531923842236 0.5977092963364168  -0.8412186970181728 0.5406950191994072 5.416200453068056  -0.9446654513974886 0.328035340986271 5.08159771335523  -0.488139902087903 0.8727653957333624 2.96095883229132  -0.8785088040011984 0.477726157220205 2.974827940953555  -0.3271578073423812 0.9449697186126791 2.191925173705069  -0.9508903440986589 0.3095279526956072 2.22892737595223  -0.8687538592662858 0.495244113554048 4.331955036793843  -0.5018108727286039 0.8649773684966311 4.332116694917739  -0.4903969044212104 0.8714992117805354 5.02218441635114  -0.48608800567317 0.8739098641969205 3.309834595827498  -0.8754462452008926 0.4833154991965997 3.313467667924173  -0.9144695922221384 0.4046546242180806 4.015252957283547  -0.4055987562540171 0.9140512288297602 4.015276051301246  -0.4068363087348821 0.9135010771175783 0.8661844613645524  -0.9399341228411513 0.341355891583601 0.856060957213346  -0.3745783475761743 0.9271952661263444 1.751862902818776  -0.9305568819035399 0.3661473604192187 1.791582647089522  -0.9037940692354984 0.4279676160818 4.692466715105827  -0.4407577404230236 0.8976260993627531 1.386221684143099  -0.458940089582819 0.8884672161502156 3.664835932362339  -0.8887095201964843 0.4584707064929392 3.665190985228485  -0.3967204098018481 0.9179394949813706 4.65465339995881  -0.9676422700482733 0.2523260533829681 0.4895383456974943  -0.9666355220159508 0.2561557486705118 5.503475051909614  -0.3783581356151582 0.9256592900272874 5.548846755515943  -0.3173551370392139 0.9483067631282724 0.5032721936969793  -0.4761040433704699 0.8793889582467419 5.772768054608889  -0.495729950709127 0.8684767216050907 0.2812149000895063  -0.6864294928358504 0.7271963636907967 4.505653242169838  -0.7482224490321951 0.6634479382470521 0.3074916243204786  -0.5827974162238722 0.8126174817481954 1.142247586168647  -0.7381924221234391 0.6745902073996706 5.739900916311885  -0.2236935918345643 0.9746595184843534 1.467080345534475  -0.6921481786769906 0.7217554286280946 4.812097145181883  -0.9745716993896634 0.2240758861384766 3.766051851503912  -0.2246363889189343 0.9744426575091329 3.76567255483876  -0.9720235126211428 0.2348835688413626 3.483148648331644  -0.2361614978995965 0.9717138194498518 3.481584123854334  -0.5594777500058382 0.8288453699263844 5.310096287147803  -0.9417299373482779 0.3363699230044335 1.417801030012311  -0.2292590566893604 0.9733654426400726 4.928778264938998  -0.6172845190428934 0.7867399967905432 0.5827892844255755  -0.7404649708752804 0.672094953787536 1.350644274836773  -0.8886160859631946 0.4586517761520741 1.140560398415051  -0.9821641710985813 0.1880253733149783 4.854427347311638  -0.2836781305555711 0.958919557754714 1.197317140702091  -0.2470922846377803 0.9689919519131632 3.148886665450068  -0.970284268431691 0.2419678458679546 3.15489641202433  -0.9728441835944859 0.2314609998388032 1.149551143796117  -0.707240829157797 0.7069727077986758 2.822609219385004  -0.5807570887997449 0.8140769028837787 1.538052748835273  -0.2291016706083932 0.9734024987251899 0.223564085424151  -0.2373918376534172 0.9714139773626556 5.797656295359094  -0.8374088716893954 0.546576967696128 4.92555213479
[...]
<PointData  Vectors="f_76"> 
<DataArray  type="Float64"  Name="f_76"  NumberOfComponents="3" format="ascii">3.5613166192173432e-02 1.1310757434994778e-01 -1.3541551127020133e+00  3.0556971585870282e-02 -1.0208087469686829e-01 -1.1602580403979568e+00  -1.1956835874959323e-01 1.0572691527041531e-02 -1.1027382915450066e+00  1.0066863142788539e-01 -4.3873484026587785e-02 -1.1709769891792206e+00  1.0862663876370919e-04 -3.0540264487701342e-04 3.9981851340661532e-04  1.3800689426806027e-05 -8.3956421846256629e-04 4.9031973232623871e-03  -2.5560703551266262e-04 2.4007318640675428e-04 -1.2588014655803326e-02  4.9783708821434154e-04 1.9836603673190406e-04 4.0967519791977351e-03  3.5058908682891361e-02 -2.5468277547175545e-02 -1.4119042402942206e+00  1.9202014806895679e-02 8.3321559509692736e-02 -1.2487683295524830e+00  6.5483606019870702e-02 4.0343376677310111e-02 -1.1505099014101963e+00  1.5674936478456650e-02 6.1461780383748450e-02 -1.2370137001059136e+00  8.7624296289601819e-04 5.7892498688050936e-02 -1.3963147309465409e+00  -5.1627042169798791e-02 -2.0080250615861608e-01 -1.1536030351472848e+00  1.3779095052148368e-01 -5.3208164884215065e-02 -1.1054456565289410e+00  3.9964056627244560e-02 6.4318039624184015e-04 -1.2164924352297044e+00  -2.5548659431500632e-02 -2.2519459380381805e-02 -1.3916155391638274e+00  -4.4881867542328646e-02 -5.2334608733558864e-02 -1.2230201265405725e+00  -1.2529695274060110e-01 -1.0097634892378303e-01 -1.1796633343262277e+00  -5.8337107244354855e-02 -2.4910321116842531e-02 -1.1852249463401390e+00  1.3280137934488977e-02 6.8233418907148076e-03 -1.3884661061481860e+00  -2.0533510023789909e-02 3.4002906661293020e-02 -1.0612884397632447e+00  -6.3234731088887719e-02 3.6799207955527394e-02 -1.1016648201412109e+00  -5.4667821206036672e-02 -1.4228351206400451e-02 -1.2699902236869689e+00  -1.6158258151654755e-04 -1.3529183138346170e-04 1.8386050061477293e-03  -1.4236424931946134e-04 -1.4096469279997376e-04 -4.1139823411002439e-03  1.9236287262575745e-04 -3.9007082776907362e-04 -1.4929406727750488e-02  1.4714142035012619e-05 3.9378515564963295e-04 -2.6465333634974808e-03  1.2615163009324623e-04 3.4896246315718900e-04 1.4780822821418758e-02  -9.7333310999374268e-05 -2.5486979627082707e-04 -3.5076811690010587e-03  -5.2990784966204898e-04 -2.3259535092421321e-04 -1.5918371068638266e-02  4.6206203115625678e-04 3.7406123714348499e-04 -4.0727095829753042e-03  -7.8319197711187961e-04 3.0656991347759287e-05 1.2613775934341097e-03  3.2226323312137661e-05 -1.3494051564999989e-04 -6.4829019329369275e-03  -5.9745145346792546e-04 -7.8891177245825019e-05 -2.9880328154660813e-02  -1.7886601590287024e-04 1.1434738451847906e-04 -5.0147547676234194e-03  2.9112717402405690e-04 1.3440927906715301e-04 -1.0551882119159352e-03  8.5463847637278748e-06 -3.6155308328021137e-04 4.6191030636699793e-03  4.7026438080580027e-04 -1.0874547634869594e-04 -9.2702108259615206e-03  -2.9090278861147251e-04 -8.8676464123569495e-05 2.4273634603298193e-04  1.0543362406628348e-04 -5.1687184734773627e-04 2.4083283202549554e-02  -1.5070110166155865e-03 -5.9317478817533242e-04 -2.2331040300174170e-02  -4.3964373187053063e-04 -2.1177924922464241e-04 1.1122198110162526e-01  -7.6542179855146875e-05 3.7411500303099750e-04 1.6701134628626571e-01  9.9564042579559724e-04 3.8930011701959852e-04 1.2490534555139471e-01  4.2483609707132547e-04 2.0261916468368329e-03 1.2012931843058195e-03  -3.3523021308948838e-04 -6.6959947662422405e-05 2.6944172073644152e-02  -2.1509065676430746e-04 -3.5671019033576526e-04 2.7841452413088375e-02  9.9287847161124180e-04 4.7302730685263103e-04 2.5945756189242938e-02  1.6148459996247883e-03 -1.9843927368637187e-04 2.2022623100268066e-02  -8.7234637470269473e-04 -3.3823473827388636e-03 1.6427840202125968e-02  7.0122374957172311e-04 -8.2087470310483537e-03 1.1866056547628633e-02  -3.6585095106581120e-03 1.1959512991205021e-02 -3.0217020869742216e-02  -8.8620928757172559e-03 1.7199150344664751e-02 -1.8906819562194467e-03  3.4905714725958548e-02 -9.3643330338903374e-02 1.9044756632961007e-01  3.6369539389876235e-02 -1.1248114914229083e-01 6.8749168185804635e-02  8.7539425632594967e-02 -1.9090302061992206e-02 5.8267574165718150e-01  5.7716843667864135e-04 -4.2140314256344726e-04 2.1639059389433214e-02  5.2054824372724229e-04 1.3385633366577326e-03 1.0395279988526182e-01  -4.4244376123497419e-03 8.3574453803362517e-04 -1.7913611450450589e-02  -3.5906399152056440e-04 -6.4076227469445210e-04 9.7940430014272328e-02  6.0271685701497320e-04 2.0500743426925559e-04 9.5905879934285607e-02  1.0949666824384894e-03 4.0183260507487169e-04 -1.0264213976567500e-02  -1.0097966406082154e-03 3.9495267767137709e-04 1.9015834817225050e-02  2.9588850863341318e-04 -1.2244946113442332e-04 1.3572640343737679e-02  -4.9268723195569088e-04 1.3453736691086495e-04 6.3240495051104942e-03  -1.8835573251524491e-04 7.0110103215266875e-04 -2.5124319004517053e-02  -7.2668730085851177e-04 -2.4973633458523284e-03 9.9799974318885057e-02  -4.3712293697102398e-03 1.7002234045736982e-04 -2.1979314372948137e-02  3.2818567120581664e-03 1.5537584358175890e-03 3.6855081791257057e-03  -2.5333280660309147e-03 2.9728755615626829e-03 2.2656039700513757e-02  -6.7596322339767742e-02 -3.2894350054459551e-02 -2.3265630779796198e-01  1.1522297268873102e-01 2.5992468986274064e-02 3.3071813495499719e-01  -1.1253222915073192e-01 1.3775784076044670e-01 4.8293651343044464e-01  4.6279310586456300e-07 -1.9083449306473945e-04 5.0635770993449486e-02  2.4483201444331905e-04 -7.6968401471500642e-04 7.7757635906045480e-02  5.5382729241565225e-04 2.7646361376786056e-05 8.8643548559737315e-02  1.3691623534822149e-04 1.3095587055412798e-04 1.1059720300265909e-01  1.7661051351853055e-04 1.3698355387098122e-03 1.0141235280783688e-01  6.3491233997740024e-06 1.0408886617914808e-03 -7.5639812364890879e-03  3.5663599084824238e-04 -3.9703170665574640e-04 2.2816203697097491e-02  -2.6037982829252472e-04 5.9215199267027428e-04 1.4644126867807548e-02  -2.4434867166693683e-04 -6.2364874167207974e-04 1.5472530443584409e-02  -5.2508513352700641e-04 -7.6747767136476643e-04 1.9198087521681582e-02  -9.1414620982015351e-05 2.1570181880307807e-03 1.7739180668723872e-02  -4.1223568819319552e-04 3.4325143553812815e-03 -4.0695783209856329e-03  1.7680023008852155e-04 9.6725153385117391e-04 -2.7419873225485556e-03  3.3936763979126195e-03 -2.3964236118579101e-02 -4.1894207952235625e-03  1.6934672485731053e-04 8.6598830960826240e-02 7.4194256950734450e-02  -1.2441245776216660e-02 1.8654677349446513e-01 2.5508098224108783e-01  -1.7992808467785074e-01 2.9473180450056469e-01 6.0470841964118660e-01  -9.7262210398181589e-05 -9.5080874397239523e-04 2.7547424240463789e-02  -1.5279212487241671e-03 1.6112998959733997e-03 -1.5780154992160487e-02  5.7348954243333596e-05 -3.8243733268812755e-04 1.2507200546798658e-01  -2.1452050928827120e-04 8.0546630626651442e-05 1.5990670535876225e-01  9.9251986055435107e-06 -7.5168801904725133e-04 1.4242762167118017e-01  4.7051679553827608e-04 8.9634252472678536e-05 1.1955739640749805e-01  -4.5021809808370479e-04 -1.2176056645089402e-04 1.5779636814861477e-02  -1.1002769783035773e-03 -1.5670083705468244e-04 1.3587112278207723e-02  9.4880797748892300e-04 -4.4813980576943949e-05 1.7547047926964841e-02  -2.8952362954429286e-04 -9.9851556390633802e-04 2.2310847864559495e-02  -1.5032048043299336e-03 -2.2311896619791119e-04 7.4746630957517497e-03  5.1812499765237316e-04 4.1453930312010444e-04 2.6527062035652067e-04  2.2473370468201587e-03 2.3279468597773990e-03 5.8779430893373978e-03  4.0502738890490414e-02 -9.8668956980869221e-03 -3.7228485505573397e-03  -1.4309589907763424e-02 3.2065435938538028e-02 4.6633612138620516e-02  -1.3626525083563373e-01 1.7765997501372671e-02 1.6912850241251925e-01  -4.1292925645792268e-02 -1.7261648160373488e-01 6.1990497686495916e-01  4.3948232874391549e-04 -1.0527222135120481e-04 1.1325328518301252e+00  -6.5971517343760207e-05 -3.9503238392745159e-04 8.4330421580589854e-01  6.1449865262324201e-04 -2.0992308674527791e-04 8.3211329575407311e-01  1.7506512508934144e-04 4.6711500349288262e-04 8.2112515909359562e-01  -1.1207409654951949e-03 -3.3715311688073407e-05 8.3211172003050615e-01  -2.2979158594968899e-04 -2.6052569042746607e-04 8.0290647635606727e-01  5.1429655956235763e-04 -1.9396839702805094e-04 8.0398273439381551e-01  -3.8782544436134238e-04 2.7470888391742236e-04 8.1769915861202669e-01  1.2565758688218524e-03 5.5600669510506742e-04 8.2531729395397668e-01  -1.1860517227873580e-03 7.3380036605288738e-04 5.6229779568361493e-01  -1.3873660289949352e-04 3.4204817405007759e-04 5.6094376234404353e-01  -6.3376456984096216e-04 1.7784803882227884e-04 5.5935758672382596e-01  -7.6654622344947648e-04 -4.0721367720580106e-04 5.5802559717721145e-01  9.4059905411170315e-04 -2.0858391095777370e-03 5.2731824630859592e-01  -7.1980006714449855e-04 2.5368290164241732e-03 5.6271750544396792e-01  -2.1758662196499317e-03 -1.4138429405484284e-03 5.5906371197557359e-01  2.5752278089804050e-05 3.2220084593333236e-04 5.5731059945264882e-01  2.2136103286594176e-04 -7.9861975955231653e-04 1.0248490782427477e+00  2.1158401193078485e-04 3.0652671088637342e-04 1.0250609435015523e+00  8.9186799220840702e-06 -5.4474086270061477e-04 1.0258540274280010e+00  5.4512716480315719e-04 -3.8680298412512037e-04 1.0205164097293713e+00  1.9864034564251671e-03 2.2194045420331605e-03 4.7047687169614255e-01  2.0654891879315229e-05 5.1569573470279365e-04 4.7962746537951484e-01  8.2417507375384842e-04 -2.5724562032145617e-04 4.6761022334936142e-01  7.4318381310642650e-04 -4.2979358341762436e-04 4.6881160272978945e-01  -1.1358075704594229e-03 1.4743531446617445e-03 4.1691881440296746e-01  -1.4913228602608140e-03 -3.1340499086939384e-04 4.1658630250193984e-01  2.0542380535438500e-04 3.8665678567823556e-04 3.8137338072913085e-01  1.3093447988427702e-03 4.9123652504831183e-04 4.1571040844919688e-01  1.3914562335599224e-03 -7.1869997016079116e-04 4.0704627457825815e-01  5.0432215437503215e-04 8.7079115177497854e-04 4.0568337809426658e-01  3.9537748929535329e-04 -3.1553271208380765e-04 4.0405017481267963e-01  -3.8627851174393091e-04 -7.3216424156704837e-04 4.0529918029520984e-01  -1.4454290276854628e-04 -7.8934217891163904e-04 1.0368788338377437e+00  1.6747401269136036e-04 5.6092722173032173e-04 1.0178093665430352e+00  2.8581524732148564e-04 -7.2602160307076767e-04 1.0385758266412615e+00  -9.0722951709382353e-05 9.6484487227674757e-05 1.0208427463033889e+00  1.1102332007234429e-01 2.1651520686131135e-02 -1.0902240940036090e+00  3.0805857773346483e-02 1.5060943797982191e-02 -1.0237086590225726e+00  1.6100838123158845e-01 -4.4518526938011067e-02 -1.5377878225128285e+00  -4.6928333682237922e-01 -6.4566683884416623e-02 -1.4091792572529465e+00  2.2963432817577342e-01 -9.3757853314079570e-02 -1.1130889883365576e+00  -5.7926761495491565e-02 1.4033117887560359e-01 -1.4665875472049097e+00  2.5424802775626358e-02 -4.9872819113320324e-02 -1.3752569605378120e+00  -1.0802323725581613e-01 -3.0655272065873129e-01 -1.0243185227331804e+00  3.7609523424036473e-01 -3.8670856571608515e-03 -1.4383524908085341e+00  -3.9964105333526395e-01 5.6021740926603003e-01 -9.6859077301822372e-01  -1.4056275331240395e-01 -4.6100466191299661e-01 -5.7667921580191173e-01  4.6410756899645578e-01 -4.9451812936793432e-02 -7.5315972410877896e-01  -7.3973586823660509e-01 1.4705719498734074e-01 -6.2790533535804638e-01  -5.2139250127620640e-01 -4.5669016009191438e-01 -1.0456730828503886e+00  3.7867736036160932e-01 -5.7357102048695119e-01 -7.6858960022384282e-01  4.1843517459111468e-01 2.2368322570479812e-01 -6.4615107413718564e-01  -2.5907973375765475e-01 4.0262119942284486e-01 -1.0066974064194130e+00  1.9695918462591933e-02 1.0828633797536828e-01 -9.0027306210552316e-01  -6.6947032637694581e-02 -8.8867328649956903e-02 -1.0743876454066261e+00  -2.9606746885011276e-01 3.1575447748930952e-02 -8.3304438956182481e-01  -7.3097404561023718e-02 3.7514430832865281e-01 -9.6641290984964012e-01  2.9761105042339094e-02 2.9512911760101734e-01 -4.9248704181319347e-01  1.6441397779744599e-01 -2.5863354504882985e-01 -5.8497817410786379e-01  -2.5667812429295311e-01 -3.6805745306144777e-01 -8.5237433568905308e-01  -4.7969105682565744e-01 2.0530943793046735e-01 -5.5124431489601733e-01  -3.0578459887797521e-01 4.6100405614078847e-02 -1.0332298955194612e+00  6.0431843185456760e-03 1.2660526956510462e-01 -6.7172981033604995e-01  -5.1655323733676684e-01 9.9932091739182424e-02 -5.2005372447425180e-01  4.7423545340814353e-02 5.9645459329018047e-01 -5.3375560675730471e-01  6.3596102469424065e-01 -2.8942200611468044e-01 -8.3156950231780513e-01  8.4123952787530324e-03 -5.5869079181502534e-01 -5.8950534697548373e-01  -1.2716742797895872e-01 -2.9922461081135709e-01 -7.3576757977257667e-01  -1.6632874284575477e-01 1.0971220615030015e-01 -8.3234332968968283e-01  2.5240289490512602e-01 2.8036438121236212e-01 -2.4842508953870954e-01  2.6352360751135262e-01 -1.2077883579541239e-01 -8.0685845618953289e-01  -6.9023493258118629e-02 -2.4703448736731040e-01 -1.5369047017552313e+00  2.8844842416843514e-01 -2.0858136632073362e-01 -1.0466923526123262e+00  2.8108123880517336e-04 -4.9692092707440041e-04 9.5619457400507396e-02  -1.2697691656729476e-03 8.6509279458341494e-04 1.0837036688283998e-01  6.8468308348351476e-04 -1.0710642776993180e-03 5.7413983636654606e-02  1.0514328581864001e-03 -1.1247945591589849e-03 7.7979361107423914e-02  -5.9410576706315534e-04 -2.2050907401653871e-06 5.8058441239147301e-02  -6.3976869763722845e-04 1.1886164601873357e-03 7.8612625276781214e-02  5.5732882747562995e-02 1.1390320488398614e-02 2.2106397246306786e-01  2.6258624191242631e-03 -3.4400437076272821e-03 2.4581644583729880e-02  -1.6434439063703890e-03 -1.1600227733187477e-03 7.6091373544772495e-02  -5.1915093971842630e-01 2.2355686747743625e-01 8.7792093455300024e-01  5.3789255087343280e-04 2.5950143561675738e-04 9.6899252662255228e-03  7.8753996043087984e-02 1.5933927195083228e-02 -4.0178200743807180e-01  4.3684100820687448e-05 9.8720799672800063e-04 6.0193039991988044e-02  -6.6503297038110476e-04 -2.5101924051729239e-04 6.5938205547954543e-02  -2.2769407780806622e-04 -5.7909875397286928e-04 3.8234823448547749e-02  2.4413660545467212e-04 1.4070417576235957e-04 2.4079159706788086e-02  -3.0034547769181838e-04 3.8374001922509143e-03 -1.0525571752920981e-03  -4.6015586546747384e-03 8.8652168102830258e-04 7.6888798466065125e-02  2.5976877060581593e-04 1.6975302658750677e-04 4.6506569191491889e-02  -1.0922327569470294e-03 4.6661027076147206e-04 4.3771934341160071e-02  2.0549721099179302e-03 -2.9171500058755447e-03 -5.5665572168059263e-03  2.0720052110333656e-04 -8.0769484327048021e-04 5.3343832158977679e-02  -9.9408932576764897e-05 9.8119554960499227e-05 6.6524358336999727e-03  6.9239742765947389e-04 3.7139269557689259e-04 7.4270535006138477e-02  -2.1377465599870240e-03 1.6859351328493836e-03 1.9996764327097495e-02  -2.7340219205498638e-02 -9.6963684120024585e-03 2.9396715091248488e-01  -1.1227335052111084e-01 4.7861733083247912e-02 4.7303748781052518e-01  -7.0537673339526050e-04 -5.3461748706324901e-03 3.4766659609003554e-02  3.8194317776018213e-03 -5.4282347791388755e-03 7.6785380694507299e-02  -1.5703276688167173e-03 -1.3557892749039725e-03 6.4146929990837320e-02  7.6923622442873710e-03 -3.6408070545507158e-03 3.4515601428189741e-02  2.5372495400515887e-04 -4.0862891853985243e-04 4.7038485623080620e-02  -4.2190455155364170e-04 1.9287549634611564e-04 -4.3120786750844541e-03  3.6353068024178752e-04 1.6180721022641918e-03 4.4259219591255249e-02  1.1508221863165458e-01 -5.7476701471287153e-02 -5.2271192339599248e-01  -5.1062966135638195e-04 -6.8341699064301280e-05 5.2585168242170306e-02  -1.5480662884871416e-03 9.8801985197426127e-05 6.0150372957930041e-02  1.9029078079532674e-01 -2.1283407912949148e-01 -7.3416317209133697e-01  6.8089012230723701e-04 -2.9586304049391621e-04 3.1363458112078794e-02  -1.7326671849335652e-02 2.0804321250459620e-01 7.0098948688530460e-01  1.9004019724399042e-04 -1.0295057032390954e-03 4.3065666139324145e-02  -2.7854388539494834e-01 5.4648732522208171e-02 9.0086847549638582e-01  -2.3019089169395248e-03 6.2129704414532012e-03 -4.8731353745524196e-02  2.8549553856617021e-04 9.5534565140327545e-06 4.3702931290988074e-02  5.0713692537819582e-03 -1.6658158688375286e-03 6.4253484600155803e-03  -3.8941351859210138e-03 4.5053809113677276e-03 -6.1433887155671590e-03  1.7988675421601644e-03 -7.7310958522159657e-04 -8.9661661073515923e-03  7.9184786871027367e-04 -2.7916199209844813e-03 6.4356015831548456e-03  1.1688414353325326e-04 -8.4523598647430844e-04 2.0762391027355064e-02  2.8025531060226801e-04 5.7484990632741893e-04 3.4859011937939839e-03  -2.8505009325179362e-04 -6.4982674782026431e-04 3.9473388709635057e-02  1.9226274860801754e-02 -1.6118509350145339e-02 4.3093490592704280e-02  2.3627026861029981e-04 3.3866030960145797e-03 -2.7881601489002771e-03  1.0991378960408026e-01 -1.3748433078837105e-01 -2.7976945525229474e-01  -6.7666438732200728e-03 4.3348631870524798e-03 7.1876700886632630e-02  2.3899088903387988e-02 -1.1845534256441862e-02 6.4715007182984854e-02  -1.4488618320329337e-03 -4.4658106875143723e-05 1.1384310753700401e-01  2.3645964848295663e-03 -3.5951511543715980e-02 -1.1412505998399501e-01  3.3606869900436879e-04 5.2094563660744155e-04 7.8654632996958251e-03  -1.9087382742131721e-04 4.4375332347131941e-04 1.2876911047619696e-02  7.0069526148314992e-02 -1.2558839791411232e-02 -1.1244342022849595e-01  -1.1920653433019944e-03 1.3221357473139725e-03 1.3975826041083586e-02  -1.9378515189601270e-03 -3.2416122431048050e-03 5.6871694487731113e-02  -5.6909150715960803e-02 4.6065543283977994e-01 8.3648267932942311e-01  3.2548664811442971e-05 1.6421736447875613e-03 2.9457455081974136e-02  2.2133814576769748e-03 -7.1010747995538389e-04 -6.9847849429469392e-03  1.1830199200769265e-03 -1.2458965985598193e-04 5.1746642715454656e-02  2.0858505563194559e-04 5.3245613456855232e-04 2.5497692238998036e-02  4.2297431263778551e-04 5.6406644783659583e-04 4.7921961441474654e-02  -9.9221191955783223e-04 -4.4654370517132447e-05 6.8254706943066651e-02  1.4750746421577485e-03 -3.9986153028763426e-03 9.6092003723258171e-02  -4.8439043835760023e-04 -4.7117125550125028e-03 5.5307925915045214e-02  8.4028109263740540e-03 -1.6596057737215182e-02 9.8684093002272169e-02  3.0238823609807865e-04 -7.6635206706151193e-04 7.3038145566633003e-02  -2.9432753212020309e-04 -1.6345006324609071e-03 4.6758583842405332e-03  8.9471622861592886e-04 5.5017120364132008e-04 3.4871321619755154e-02  -2.4794497531437517e-05 2.0090869411351503e-04 5.7468763964801462e-03  -2.7010439702047532e-04 1.3215795180823707e-05 1.3798186207738706e-04  -6.4803250318556244e-04 2.2392484465402836e-03 6.5548490954335487e-02  -1.2546496648301855e-01 3.3476604503445928e-01 6.3840391653868644e-01  1.1034427867021412e-03 -9.7228436797654298e-06 5.0778085438801896e-03  -2.4807368551081616e-04 -3.0244451733753362e-04 5.2567759315550751e-02  1.5129808698831622e-03 3.6037182114255690e-05 4.4045460239745628e-02  -2.7276501923965464e-04 -1.7478610237213173e-03 8.7459458693678924e-02  3.7507343435634896e-05 2.1360335125661099e-04 3.3792810977633821e-02  4.9646511631331247e-04 -1.3377475383805340e-03 4.6422897288808412e-02  9.5646034155826563e-04 1.5310869706023529e-03 7.0424150094163085e-02  -6.7911724859355026e-03 -4.5282528924717727e-03 1.8950749651209214e-02  -2.7353610544388663e-02 -1.0712758145355048e-02 1.0981127333780261e-03  -1.9841117108056346e-03 -7.1906268338963134e-03 -1.6995687016716086e-02  -5.2724806580895112e-03 -4.8730255011244513e-04 3.4317855833808260e-02  1.5826717265675183e-01 1.1111413832487124e-01 8.0653644849287764e-01  1.4105857375186518e-03 1.1655306524470800e-03 1.2733980202640502e-01  1.0691344919387813e-01 -1.3122586563857500e-01 -2.1594805293476926e-01  2.0413316507577584e-03 1.0714557293607431e-04 7.0026599611520912e-02  1.9238820105132559e-03 -6.0888092592078081e-04 9.4459874633227747e-02  2.3854479565170229e-03 5.1039782112849658e-04 5.726399616444